data_170-ICSD
#2017 by Fachinformationszentrum Karlsruhe, and the U.S. Secretary of 
#Commerce on behalf of the United States.  All rights reserved.
_database_code_ICSD                170
_audit_creation_date               1980/01/01
_audit_update_record               2009/08/01
_chemical_name_systematic
;
Aluminium Tris(catena-phosphate(V))
;
_chemical_formula_structural       'Al (P O3)3'
_chemical_formula_sum              'Al1 O9 P3'
_publ_section_title
;
Crystal structure of a monoclinic form of aluminium metaphosphate, Al 
(P O3)3
;
loop_
_citation_id
_citation_journal_abbrev
_citation_year
_citation_journal_volume
_citation_journal_issue
_citation_page_first
_citation_page_last
_citation_journal_id_ASTM
primary 'Acta Crystallographica B (24,1968-38,1982)' 1976 32 * 2423 2426 ACBCAR
_publ_author_name                  'van der Meer, H.'
_cell_length_a                     10.423(3)
_cell_length_b                     18.687(2)
_cell_length_c                     9.222(1)
_cell_angle_alpha                  90.
_cell_angle_beta                   81.63(1)
_cell_angle_gamma                  90.
_cell_volume                       1777.08
_cell_formula_units_Z              12
_symmetry_space_group_name_H-M     'I 1 c 1'
_symmetry_Int_Tables_number        9
_refine_ls_R_factor_all            0.057
loop_
_symmetry_equiv_pos_site_id
_symmetry_equiv_pos_as_xyz
  1	'x, -y, z+1/2'
  2	'x, y, z'
  3	'x+1/2, -y+1/2, z'
  4	'x+1/2, y+1/2, z+1/2'
loop_
_atom_type_symbol
_atom_type_oxidation_number
Al3+	3
O2-	-2
P5+	5
loop_
_atom_site_label
_atom_site_type_symbol
_atom_site_symmetry_multiplicity
_atom_site_Wyckoff_symbol
_atom_site_fract_x
_atom_site_fract_y
_atom_site_fract_z
_atom_site_occupancy
_atom_site_attached_hydrogens
Al1 Al3+ 4 a 0.5073(4) 0.0878(3) 0.0067(7) 1. 0 
Al2 Al3+ 4 a 0.5053(4) 0.4202(3) 0.0057(7) 1. 0 
Al3 Al3+ 4 a 0.4867(4) 0.7452(3) -.0072(7) 1. 0 
P1 P5+ 4 a 0.6473(4) 0.0276(3) 0.7010(7) 1. 0 
P2 P5+ 4 a 0.6310(4) 0.3646(3) 0.6889(7) 1. 0 
P3 P5+ 4 a 0.6289(4) 0.6969(3) 0.6840(7) 1. 0 
P4 P5+ 4 a 0.8756(4) 0.0310(3) 0.3182(7) 1. 0 
P5 P5+ 4 a 0.8573(4) 0.3635(3) 0.3107(7) 1. 0 
P6 P5+ 4 a 0.8617(4) 0.6986(3) 0.3065(7) 1. 0 
P7 P5+ 4 a 0.7317(4) 0.1486(3) 0.4930(7) 1. 0 
P8 P5+ 4 a 0.7688(4) 0.4848(3) 0.5121(7) 1. 0 
P9 P5+ 4 a 0.7560(4) 0.8183(3) 0.5081(7) 1. 0 
O1 O2- 4 a 0.0179(4) 0.2130(3) 0.2994(7) 1. 0 
O2 O2- 4 a 0.0501(4) 0.5353(3) 0.3342(7) 1. 0 
O3 O2- 4 a 0.0295(4) 0.8908(3) 0.3071(7) 1. 0 
O4 O2- 4 a 0.2244(4) 0.1460(3) 0.2522(7) 1. 0 
O5 O2- 4 a 0.2884(4) 0.5224(3) 0.2449(7) 1. 0 
O6 O2- 4 a 0.2246(4) 0.8110(3) 0.2562(7) 1. 0 
O7 O2- 4 a 0.0964(4) 0.1632(3) 0.0484(7) 1. 0 
O8 O2- 4 a 0.1262(4) 0.4695(3) 0.1000(7) 1. 0 
O9 O2- 4 a 0.0885 0.8295 0.0597 1. 0 
O10 O2- 4 a 0.158 0.0245 0.9706 1. 0 
O11 O2- 4 a 0.1365 0.343 0.9521 1. 0 
O12 O2- 4 a 0.1334 0.6959 0.9418 1. 0 
O13 O2- 4 a 0.3729 0.0255 0.0674 1. 0 
O14 O2- 4 a 0.3475 0.3714 0.0537 1. 0 
O15 O2- 4 a 0.3467 0.6824 0.0431 1. 0 
O16 O2- 4 a 0.3888 0.1438 0.9139 1. 0 
O17 O2- 4 a 0.4131 0.5003 0.9546 1. 0 
O18 O2- 4 a 0.3714 0.8126 0.9321 1. 0 
O19 O2- 4 a 0.4625 0.2123 0.6777 1. 0 
O20 O2- 4 a 0.4857 0.5524 0.7034 1. 0 
O21 O2- 4 a 0.4637 0.8637 0.6857 1. 0 
O22 O2- 4 a 0.225 0.0715 0.6379 1. 0 
O23 O2- 4 a 0.1584 0.3985 0.6194 1. 0 
O24 O2- 4 a 0.2157 0.734 0.6434 1. 0 
O25 O2- 4 a 0.334 0.0589 0.3747 1. 0 
O26 O2- 4 a 0.2756 0.4055 0.3627 1. 0 
O27 O2- 4 a 0.3376 0.727 0.3857 1. 0 

loop_
_atom_site_aniso_label
_atom_site_aniso_type_symbol
_atom_site_aniso_U_11
_atom_site_aniso_U_22
_atom_site_aniso_U_33
_atom_site_aniso_U_12
_atom_site_aniso_U_13
_atom_site_aniso_U_23
Al1 Al3+ 0.00602 0.00561 0.00346 -.000225 0.000095 -.000215
Al2 Al3+ 0.00602 0.00561 0.00346 -.000225 0.000095 -.000215
Al3 Al3+ 0.00602 0.00561 0.00346 -.000225 0.000095 -.000215
P1 P5+ 0.00506 0.00337 0.00241 -.00021 0.000245 0.000265
P2 P5+ 0.00506 0.00337 0.00241 -.00021 0.000245 0.000265
P3 P5+ 0.00506 0.00337 0.00241 -.00021 0.000245 0.000265
P4 P5+ 0.00535 0.00601 0.00463 0.00044 -.00007 -.000555
P5 P5+ 0.00535 0.00601 0.00463 0.00044 -.00007 -.000555
P6 P5+ 0.00535 0.00601 0.00463 0.00044 -.00007 -.000555
P7 P5+ 0.00526 0.00329 0.00439 -.000255 -.0008 0.00015
P8 P5+ 0.00526 0.00329 0.00439 -.000255 -.0008 0.00015
P9 P5+ 0.00526 0.00329 0.00439 -.000255 -.0008 0.00015
O1 O2- 0.00777 0.00808 0.00489 0.00155 -.00205 0.00267
O2 O2- 0.00777 0.00808 0.00489 0.00155 -.00205 0.00267
O3 O2- 0.00777 0.00808 0.00489 0.00155 -.00205 0.00267
O4 O2- 0.00859 0.01124 0.01194 0.002855 0.00092 -.0036
O5 O2- 0.00859 0.01124 0.01194 0.002855 0.00092 -.0036
O6 O2- 0.00859 0.01124 0.01194 0.002855 0.00092 -.0036
O7 O2- 0.01143 0.00837 0.00552 -.001235 -.00126 -.001215
O8 O2- 0.01143 0.00837 0.00552 -.001235 -.00126 -.001215
O9 O2- 0.01143 0.00837 0.00552 -.001235 -.00126 -.001215
O10 O2- 0.00946 0.01802 0.00897 0.00266 0.000405 -.0008
O11 O2- 0.00946 0.01802 0.00897 0.00266 0.000405 -.0008
O12 O2- 0.00946 0.01802 0.00897 0.00266 0.000405 -.0008
O13 O2- 0.01234 0.00157 0.00839 -.003795 -.001205 -.000715
O14 O2- 0.01234 0.00157 0.00839 -.003795 -.001205 -.000715
O15 O2- 0.01234 0.00157 0.00839 -.003795 -.001205 -.000715
O16 O2- 0.01146 0.00956 0.0061 0.00379 0.003725 -.000045
O17 O2- 0.01146 0.00956 0.0061 0.00379 0.003725 -.000045
O18 O2- 0.01146 0.00956 0.0061 0.00379 0.003725 -.000045
O19 O2- 0.01316 0.0065 0.00464 0.0029 -.000495 0.00168
O20 O2- 0.01316 0.0065 0.00464 0.0029 -.000495 0.00168
O21 O2- 0.01316 0.0065 0.00464 0.0029 -.000495 0.00168
O22 O2- 0.01286 0.01022 0.01008 0.006085 -.00218 -.00084
O23 O2- 0.01286 0.01022 0.01008 0.006085 -.00218 -.00084
O24 O2- 0.01286 0.01022 0.01008 0.006085 -.00218 -.00084
O25 O2- 0.01474 0.00649 0.00747 -.00089 0.003775 0.00199
O26 O2- 0.01474 0.00649 0.00747 -.00089 0.003775 0.00199
O27 O2- 0.01474 0.00649 0.00747 -.00089 0.003775 0.00199
#End of data_170-ICSD


