
#(C) 2017 by FIZ Karlsruhe - Leibniz Institute for Information Infrastructure.  All rights reserved.
data_14090-ICSD
_database_code_ICSD 14090
_audit_creation_date 1980-12-31
_audit_update_record 2012-08-01
_chemical_name_systematic 'Trisodium phosphate(V) - HT'
_chemical_formula_structural 'Na3 (P O4)'
_chemical_formula_sum 'Na3 O4 P1'
_exptl_crystal_density_diffrn 2.66
_publ_section_title

;
Ueber Na3 P O4: Versuche zur Reindarstellung, Kristallstruktur der
Hochtemperaturform
;
loop_
_citation_id
_citation_journal_full
_citation_year
_citation_journal_volume
_citation_page_first
_citation_page_last
_citation_journal_id_ASTM
primary 'Zeitschrift fuer Anorganische und Allgemeine Chemie (1950) (DE)' 1980
461 101 108 ZAACAB
loop_
_publ_author_name
'Wiench, D.M.'
'Jansen, M.'
_cell_length_a 7.423
_cell_length_b 7.423
_cell_length_c 7.423
_cell_angle_alpha 90.
_cell_angle_beta 90.
_cell_angle_gamma 90.
_cell_volume 409.01
_cell_formula_units_Z 4
_symmetry_space_group_name_H-M 'F 4 3 2'
_symmetry_Int_Tables_number 209
_refine_ls_R_factor_all 0.14
loop_
_symmetry_equiv_pos_site_id
_symmetry_equiv_pos_as_xyz
1 '-y, x, z'
2 'z, -x, -y'
3 'y, x, -z'
4 '-z, -x, y'
5 'y, -x, z'
6 '-z, x, -y'
7 '-y, -x, -z'
8 'z, x, y'
9 'z, -y, x'
10 '-y, z, -x'
11 '-z, y, x'
12 'y, -z, -x'
13 'z, y, -x'
14 '-y, -z, x'
15 '-z, -y, -x'
16 'y, z, x'
17 'x, z, -y'
18 '-x, -y, z'
19 'x, -z, y'
20 '-x, y, -z'
21 '-x, z, y'
22 'x, -y, -z'
23 '-x, -z, -y'
24 'x, y, z'
25 '-y, x+1/2, z+1/2'
26 'z, -x+1/2, -y+1/2'
27 'y, x+1/2, -z+1/2'
28 '-z, -x+1/2, y+1/2'
29 'y, -x+1/2, z+1/2'
30 '-z, x+1/2, -y+1/2'
31 '-y, -x+1/2, -z+1/2'
32 'z, x+1/2, y+1/2'
33 'z, -y+1/2, x+1/2'
34 '-y, z+1/2, -x+1/2'
35 '-z, y+1/2, x+1/2'
36 'y, -z+1/2, -x+1/2'
37 'z, y+1/2, -x+1/2'
38 '-y, -z+1/2, x+1/2'
39 '-z, -y+1/2, -x+1/2'
40 'y, z+1/2, x+1/2'
41 'x, z+1/2, -y+1/2'
42 '-x, -y+1/2, z+1/2'
43 'x, -z+1/2, y+1/2'
44 '-x, y+1/2, -z+1/2'
45 '-x, z+1/2, y+1/2'
46 'x, -y+1/2, -z+1/2'
47 '-x, -z+1/2, -y+1/2'
48 'x, y+1/2, z+1/2'
49 '-y+1/2, x, z+1/2'
50 'z+1/2, -x, -y+1/2'
51 'y+1/2, x, -z+1/2'
52 '-z+1/2, -x, y+1/2'
53 'y+1/2, -x, z+1/2'
54 '-z+1/2, x, -y+1/2'
55 '-y+1/2, -x, -z+1/2'
56 'z+1/2, x, y+1/2'
57 'z+1/2, -y, x+1/2'
58 '-y+1/2, z, -x+1/2'
59 '-z+1/2, y, x+1/2'
60 'y+1/2, -z, -x+1/2'
61 'z+1/2, y, -x+1/2'
62 '-y+1/2, -z, x+1/2'
63 '-z+1/2, -y, -x+1/2'
64 'y+1/2, z, x+1/2'
65 'x+1/2, z, -y+1/2'
66 '-x+1/2, -y, z+1/2'
67 'x+1/2, -z, y+1/2'
68 '-x+1/2, y, -z+1/2'
69 '-x+1/2, z, y+1/2'
70 'x+1/2, -y, -z+1/2'
71 '-x+1/2, -z, -y+1/2'
72 'x+1/2, y, z+1/2'
73 '-y+1/2, x+1/2, z'
74 'z+1/2, -x+1/2, -y'
75 'y+1/2, x+1/2, -z'
76 '-z+1/2, -x+1/2, y'
77 'y+1/2, -x+1/2, z'
78 '-z+1/2, x+1/2, -y'
79 '-y+1/2, -x+1/2, -z'
80 'z+1/2, x+1/2, y'
81 'z+1/2, -y+1/2, x'
82 '-y+1/2, z+1/2, -x'
83 '-z+1/2, y+1/2, x'
84 'y+1/2, -z+1/2, -x'
85 'z+1/2, y+1/2, -x'
86 '-y+1/2, -z+1/2, x'
87 '-z+1/2, -y+1/2, -x'
88 'y+1/2, z+1/2, x'
89 'x+1/2, z+1/2, -y'
90 '-x+1/2, -y+1/2, z'
91 'x+1/2, -z+1/2, y'
92 '-x+1/2, y+1/2, -z'
93 '-x+1/2, z+1/2, y'
94 'x+1/2, -y+1/2, -z'
95 '-x+1/2, -z+1/2, -y'
96 'x+1/2, y+1/2, z'
loop_
_atom_type_symbol
_atom_type_oxidation_number
P5+ 5
O2- -2
Na1+ 1
loop_
_atom_site_label
_atom_site_type_symbol
_atom_site_symmetry_multiplicity
_atom_site_Wyckoff_symbol
_atom_site_fract_x
_atom_site_fract_y
_atom_site_fract_z
_atom_site_B_iso_or_equiv
_atom_site_occupancy
_atom_site_attached_hydrogens
P1 P5+ 4 a 0 0 0 . 1. 0
O1 O2- 24 e 0 0 -.2111(11) . 1. 0
O2 O2- 96 j -.1833(19) 0.0749(38) 0.0684(22) . 1. 0
O3 O2- 96 j 0.0276(42) -.1961(16) 0.0686(22) . 1. 0
O4 O2- 96 j 0.1576(27) 0.1216(35) 0.0683(23) . 1. 0
Na1 Na1+ 96 j 0.5174(50) 0.4885(71) 0.5124(40) . 1. 0
Na2 Na1+ 96 j 0.2586(52) 0.2398(37) 0.2706(18) . 1. 0
loop_
_atom_site_aniso_label
_atom_site_aniso_type_symbol
_atom_site_aniso_U_11
_atom_site_aniso_U_22
_atom_site_aniso_U_33
_atom_site_aniso_U_12
_atom_site_aniso_U_13
_atom_site_aniso_U_23
P1 P5+ 0.0419(6) 0.0419(6) 0.0419(6) 0 0 0
O1 O2- 0.0761(65) 0.0761(65) 0.0416(65) 0 0 0
O2 O2- 0.0368(74) 0.1445(84) 0.0898(81) -0.0217(79) -0.0420(75) -0.0861(75)
O3 O2- 0.0534(79) 0.1114(75) 0.1423(81) -0.0353(78) -0.0576(74) 0.1216(74)
O4 O2- 0.2949(85) 0.1140(82) 0.0645(80) -0.1252(82) 0.0590(83) -0.0765(73)
Na1 Na1+ 0.2299(79) 0.1983(78) 0.0511(71) -0.1391(75) -0.0935(84) 0.0840(82)
Na2 Na1+ 0.0591(73) 0.0915(74) 0.0145(67) 0.0122(65) 0.0062(53) 0.0271(81)
#End of TTdata_14090-ICSD